<?xml version="1.0" encoding="UTF-8"?>

<!-- generated on 2025-11-27T18:49:01.544848-05:00 by Eclipse SUMO GUI 1.25.0
<sumoConfiguration xmlns:xsi="http://www.w3.org/2001/XMLSchema-instance" xsi:noNamespaceSchemaLocation="http://sumo.dlr.de/xsd/sumoConfiguration.xsd">

    <input>
        <net-file value="./Medellin traffic/osm.net.xml.gz"/>
        <route-files value="./Medellin traffic/osm_pt.rou.xml,./Medellin traffic/osm.bus.trips.xml,./Medellin traffic/osm.motorcycle.trips.xml,./Medellin traffic/osm.passenger.trips.xml"/>
        <additional-files value="./Medellin traffic/osm.poly.xml.gz,./Medellin traffic/osm_stops.add.xml,./Medellin traffic/output.add.xml"/>
    </input>

    <output>
        <tripinfo-output value="./Medellin traffic/tripinfos.xml"/>
        <stop-output value="./Medellin traffic/stopinfos.xml"/>
        <statistic-output value="./Medellin traffic/stats.xml"/>
    </output>

    <processing>
        <ignore-route-errors value="true"/>
        <tls.actuated.jam-threshold value="30"/>
    </processing>

    <routing>
        <device.rerouting.adaptation-steps value="18"/>
        <device.rerouting.adaptation-interval value="10"/>
    </routing>

    <report>
        <verbose value="true"/>
        <duration-log.statistics value="true"/>
        <no-step-log value="true"/>
    </report>

    <traci_server>
        <remote-port value="61235"/>
    </traci_server>

    <gui_only>
        <gui-settings-file value="./Medellin traffic/osm.view.xml"/>
        <start value="true"/>
    </gui_only>

</sumoConfiguration>
-->

<tripinfos xmlns:xsi="http://www.w3.org/2001/XMLSchema-instance" xsi:noNamespaceSchemaLocation="http://sumo.dlr.de/xsd/tripinfo_file.xsd">
    <tripinfo id="motorcycle8" depart="5.00" departLane="32061364#0_0" departPos="2.30" departSpeed="15.15" departDelay="0.11" arrival="18.00" arrivalLane="35083878_0" arrivalPos="56.71" arrivalSpeed="24.33" duration="13.00" routeLength="143.54" waitingTime="0.00" waitingCount="0" stopTime="0.00" timeLoss="4.09" rerouteNo="0" devices="tripinfo_motorcycle8 routing_motorcycle8" vType="motorcycle_motorcycle" speedFactor="1.09" vaporized=""/>
    <tripinfo id="motorcycle3" depart="2.00" departLane="-322285650#0_0" departPos="2.30" departSpeed="0.00" departDelay="0.17" arrival="45.00" arrivalLane="322285652_0" arrivalPos="47.27" arrivalSpeed="10.86" duration="43.00" routeLength="318.10" waitingTime="0.00" waitingCount="0" stopTime="0.00" timeLoss="11.91" rerouteNo="1" devices="tripinfo_motorcycle3 routing_motorcycle3" vType="motorcycle_motorcycle" speedFactor="0.83" vaporized=""/>
    <tripinfo id="motorcycle27" depart="17.00" departLane="-99776159#5_0" departPos="2.30" departSpeed="0.00" departDelay="0.50" arrival="50.00" arrivalLane="1050506351#3_0" arrivalPos="39.31" arrivalSpeed="16.76" duration="33.00" routeLength="313.92" waitingTime="0.00" waitingCount="0" stopTime="0.00" timeLoss="8.00" rerouteNo="1" devices="tripinfo_motorcycle27 routing_motorcycle27" vType="motorcycle_motorcycle" speedFactor="0.93" vaporized=""/>
    <tripinfo id="motorcycle93" depart="57.00" departLane="-345363501#1_0" departPos="0.20" departSpeed="0.00" departDelay="0.16" arrival="74.00" arrivalLane="1018192146#1_0" arrivalPos="19.23" arrivalSpeed="14.25" duration="17.00" routeLength="161.36" waitingTime="0.00" waitingCount="0" stopTime="0.00" timeLoss="4.26" rerouteNo="1" devices="tripinfo_motorcycle93 routing_motorcycle93" vType="motorcycle_motorcycle" speedFactor="1.06" vaporized=""/>
    <tripinfo id="motorcycle22" depart="14.00" departLane="-154823209#2_0" departPos="2.30" departSpeed="0.00" departDelay="0.55" arrival="78.00" arrivalLane="124003366#2_0" arrivalPos="68.77" arrivalSpeed="9.53" duration="64.00" routeLength="550.88" waitingTime="0.00" waitingCount="0" stopTime="0.00" timeLoss="13.24" rerouteNo="1" devices="tripinfo_motorcycle22 routing_motorcycle22" vType="motorcycle_motorcycle" speedFactor="0.83" vaporized=""/>
    <tripinfo id="motorcycle46" depart="29.00" departLane="33044796#1_0" departPos="2.30" departSpeed="0.00" departDelay="0.88" arrival="80.00" arrivalLane="30175532#0_1" arrivalPos="68.18" arrivalSpeed="12.05" duration="51.00" routeLength="470.07" waitingTime="0.00" waitingCount="0" stopTime="0.00" timeLoss="11.94" rerouteNo="1" devices="tripinfo_motorcycle46 routing_motorcycle46" vType="motorcycle_motorcycle" speedFactor="0.88" vaporized=""/>
    <tripinfo id="veh10" depart="7.00" departLane="-30608130#1_0" departPos="5.10" departSpeed="0.00" departDelay="0.89" arrival="80.00" arrivalLane="-345322384#1_0" arrivalPos="115.21" arrivalSpeed="14.65" duration="73.00" routeLength="894.15" waitingTime="0.00" waitingCount="0" stopTime="0.00" timeLoss="13.62" rerouteNo="1" devices="tripinfo_veh10 routing_veh10" vType="veh_passenger" speedFactor="1.11" vaporized=""/>
    <tripinfo id="motorcycle118" depart="73.00" departLane="99868971#1_0" departPos="0.20" departSpeed="0.00" departDelay="0.87" arrival="86.00" arrivalLane="-33044939#3_0" arrivalPos="4.81" arrivalSpeed="8.06" duration="13.00" routeLength="85.54" waitingTime="0.00" waitingCount="0" stopTime="0.00" timeLoss="5.96" rerouteNo="1" devices="tripinfo_motorcycle118 routing_motorcycle118" vType="motorcycle_motorcycle" speedFactor="0.94" vaporized=""/>
    <tripinfo id="motorcycle81" depart="50.00" departLane="1052671388_0" departPos="2.30" departSpeed="13.43" departDelay="0.49" arrival="87.00" arrivalLane="361919273#1_0" arrivalPos="51.20" arrivalSpeed="11.35" duration="37.00" routeLength="339.31" waitingTime="0.00" waitingCount="0" stopTime="0.00" timeLoss="8.71" rerouteNo="1" devices="tripinfo_motorcycle81 routing_motorcycle81" vType="motorcycle_motorcycle" speedFactor="0.97" vaporized=""/>
    <tripinfo id="motorcycle11" depart="7.00" departLane="-65063639#1_0" departPos="2.30" departSpeed="15.60" departDelay="0.28" arrival="89.00" arrivalLane="-345363501#7_0" arrivalPos="11.34" arrivalSpeed="14.38" duration="82.00" routeLength="990.34" waitingTime="0.00" waitingCount="0" stopTime="0.00" timeLoss="16.66" rerouteNo="1" devices="tripinfo_motorcycle11 routing_motorcycle11" vType="motorcycle_motorcycle" speedFactor="1.12" vaporized=""/>
    <tripinfo id="motorcycle66" depart="41.00" departLane="361743369#16_0" departPos="2.30" departSpeed="0.00" departDelay="0.66" arrival="90.00" arrivalLane="-370159725_0" arrivalPos="81.42" arrivalSpeed="11.89" duration="49.00" routeLength="564.85" waitingTime="0.00" waitingCount="0" stopTime="0.00" timeLoss="11.86" rerouteNo="1" devices="tripinfo_motorcycle66 routing_motorcycle66" vType="motorcycle_motorcycle" speedFactor="1.04" vaporized=""/>
    <tripinfo id="motorcycle36" depart="22.00" departLane="347310664_0" departPos="2.30" departSpeed="15.31" departDelay="0.00" arrival="94.00" arrivalLane="316136514#6_0" arrivalPos="49.37" arrivalSpeed="12.78" duration="72.00" routeLength="922.82" waitingTime="0.00" waitingCount="0" stopTime="0.00" timeLoss="12.31" rerouteNo="1" devices="tripinfo_motorcycle36 routing_motorcycle36" vType="motorcycle_motorcycle" speedFactor="1.10" vaporized=""/>
    <tripinfo id="motorcycle56" depart="35.00" departLane="838829262#4_1" departPos="2.30" departSpeed="0.00" departDelay="0.77" arrival="94.00" arrivalLane="1020614135#1_0" arrivalPos="3.16" arrivalSpeed="10.98" duration="59.00" routeLength="491.43" waitingTime="12.00" waitingCount="2" stopTime="0.00" timeLoss="30.16" rerouteNo="1" devices="tripinfo_motorcycle56 routing_motorcycle56" vType="motorcycle_motorcycle" speedFactor="1.02" vaporized=""/>
    <tripinfo id="motorcycle52" depart="32.00" departLane="579483178#0_0" departPos="2.30" departSpeed="0.00" departDelay="0.22" arrival="98.00" arrivalLane="-1018811005_0" arrivalPos="78.06" arrivalSpeed="11.34" duration="66.00" routeLength="811.55" waitingTime="0.00" waitingCount="0" stopTime="0.00" timeLoss="10.62" rerouteNo="1" devices="tripinfo_motorcycle52 routing_motorcycle52" vType="motorcycle_motorcycle" speedFactor="1.00" vaporized=""/>
    <tripinfo id="motorcycle94" depart="58.00" departLane="44092496#0_0" departPos="2.30" departSpeed="14.03" departDelay="0.54" arrival="101.00" arrivalLane="44092477#8_0" arrivalPos="81.34" arrivalSpeed="13.05" duration="43.00" routeLength="482.43" waitingTime="0.00" waitingCount="0" stopTime="0.00" timeLoss="6.90" rerouteNo="1" devices="tripinfo_motorcycle94 routing_motorcycle94" vType="motorcycle_motorcycle" speedFactor="1.01" vaporized=""/>
    <tripinfo id="motorcycle87" depart="54.00" departLane="553789841#3_0" departPos="2.30" departSpeed="0.00" departDelay="0.82" arrival="102.00" arrivalLane="617849839_0" arrivalPos="35.79" arrivalSpeed="12.89" duration="48.00" routeLength="360.76" waitingTime="0.00" waitingCount="0" stopTime="0.00" timeLoss="8.23" rerouteNo="1" devices="tripinfo_motorcycle87 routing_motorcycle87" vType="motorcycle_motorcycle" speedFactor="1.02" vaporized=""/>
    <tripinfo id="motorcycle4" depart="3.00" departLane="566376527#0_0" departPos="2.30" departSpeed="0.00" departDelay="0.56" arrival="103.00" arrivalLane="99761761#4_0" arrivalPos="83.68" arrivalSpeed="13.30" duration="100.00" routeLength="1265.19" waitingTime="0.00" waitingCount="0" stopTime="0.00" timeLoss="15.16" rerouteNo="1" devices="tripinfo_motorcycle4 routing_motorcycle4" vType="motorcycle_motorcycle" speedFactor="1.05" vaporized=""/>
    <tripinfo id="motorcycle37" depart="23.00" departLane="-273366128#1_0" departPos="2.30" departSpeed="0.00" departDelay="0.38" arrival="107.00" arrivalLane="626981628_0" arrivalPos="109.37" arrivalSpeed="11.74" duration="84.00" routeLength="844.59" waitingTime="0.00" waitingCount="0" stopTime="0.00" timeLoss="16.11" rerouteNo="1" devices="tripinfo_motorcycle37 routing_motorcycle37" vType="motorcycle_motorcycle" speedFactor="0.90" vaporized=""/>
    <tripinfo id="motorcycle51" depart="32.00" departLane="64950074#2_0" departPos="2.30" departSpeed="0.00" departDelay="0.83" arrival="108.00" arrivalLane="1018192146#1_0" arrivalPos="19.23" arrivalSpeed="12.60" duration="76.00" routeLength="759.70" waitingTime="0.00" waitingCount="0" stopTime="0.00" timeLoss="17.33" rerouteNo="1" devices="tripinfo_motorcycle51 routing_motorcycle51" vType="motorcycle_motorcycle" speedFactor="1.10" vaporized=""/>
    <tripinfo id="veh47" depart="29.00" departLane="347321499#0_0" departPos="5.10" departSpeed="15.00" departDelay="0.27" arrival="108.00" arrivalLane="98742377#1_0" arrivalPos="46.86" arrivalSpeed="14.94" duration="79.00" routeLength="974.50" waitingTime="0.00" waitingCount="0" stopTime="0.00" timeLoss="12.23" rerouteNo="1" devices="tripinfo_veh47 routing_veh47" vType="veh_passenger" speedFactor="1.08" vaporized=""/>
    <tripinfo id="motorcycle35" depart="22.00" departLane="934500080#2_1" departPos="2.30" departSpeed="0.00" departDelay="0.61" arrival="110.00" arrivalLane="43965503#1_0" arrivalPos="94.97" arrivalSpeed="15.15" duration="88.00" routeLength="1412.59" waitingTime="0.00" waitingCount="0" stopTime="0.00" timeLoss="18.31" rerouteNo="1" devices="tripinfo_motorcycle35 routing_motorcycle35" vType="motorcycle_motorcycle" speedFactor="1.18" vaporized=""/>
    <tripinfo id="motorcycle106" depart="65.00" departLane="-1014563871_0" departPos="2.30" departSpeed="6.86" departDelay="0.21" arrival="113.00" arrivalLane="154823210#1_0" arrivalPos="15.50" arrivalSpeed="12.79" duration="48.00" routeLength="495.27" waitingTime="0.00" waitingCount="0" stopTime="0.00" timeLoss="11.58" rerouteNo="1" devices="tripinfo_motorcycle106 routing_motorcycle106" vType="motorcycle_motorcycle" speedFactor="1.06" vaporized=""/>
    <tripinfo id="motorcycle115" depart="71.00" departLane="122905442#0_0" departPos="2.30" departSpeed="0.00" departDelay="0.71" arrival="117.00" arrivalLane="-1074109698#0_0" arrivalPos="31.15" arrivalSpeed="5.85" duration="46.00" routeLength="461.73" waitingTime="0.00" waitingCount="0" stopTime="0.00" timeLoss="9.04" rerouteNo="1" devices="tripinfo_motorcycle115 routing_motorcycle115" vType="motorcycle_motorcycle" speedFactor="1.00" vaporized=""/>
    <tripinfo id="veh100" depart="62.00" departLane="-1016817681_0" departPos="5.10" departSpeed="18.34" departDelay="0.87" arrival="119.00" arrivalLane="64951356#2_0" arrivalPos="25.53" arrivalSpeed="16.66" duration="57.00" routeLength="778.54" waitingTime="0.00" waitingCount="0" stopTime="0.00" timeLoss="22.26" rerouteNo="1" devices="tripinfo_veh100 routing_veh100" vType="veh_passenger" speedFactor="1.32" vaporized=""/>
    <tripinfo id="motorcycle23" depart="15.00" departLane="-31016343#14_0" departPos="0.20" departSpeed="0.00" departDelay="0.94" arrival="121.00" arrivalLane="1008228759_0" arrivalPos="379.45" arrivalSpeed="18.94" duration="106.00" routeLength="916.22" waitingTime="28.00" waitingCount="1" stopTime="0.00" timeLoss="44.98" rerouteNo="1" devices="tripinfo_motorcycle23 routing_motorcycle23" vType="motorcycle_motorcycle" speedFactor="0.87" vaporized=""/>
    <tripinfo id="motorcycle140" depart="86.00" departLane="364136129#10_0" departPos="2.30" departSpeed="0.00" departDelay="0.43" arrival="121.00" arrivalLane="962734211#0_0" arrivalPos="4.74" arrivalSpeed="20.42" duration="35.00" routeLength="388.20" waitingTime="7.00" waitingCount="1" stopTime="0.00" timeLoss="18.15" rerouteNo="1" devices="tripinfo_motorcycle140 routing_motorcycle140" vType="motorcycle_motorcycle" speedFactor="0.94" vaporized=""/>
    <tripinfo id="veh15" depart="10.00" departLane="-65063651#1_0" departPos="5.10" departSpeed="0.00" departDelay="0.83" arrival="121.00" arrivalLane="1019228190#2_0" arrivalPos="47.31" arrivalSpeed="6.98" duration="111.00" routeLength="1119.65" waitingTime="0.00" waitingCount="0" stopTime="0.00" timeLoss="18.99" rerouteNo="1" devices="tripinfo_veh15 routing_veh15" vType="veh_passenger" speedFactor="0.94" vaporized=""/>
    <tripinfo id="motorcycle198" depart="122.00" departLane="1050506350_0" departPos="0.20" departSpeed="0.00" departDelay="0.98" arrival="124.00" arrivalLane="-1050506350_0" arrivalPos="0.20" arrivalSpeed="3.31" duration="2.00" routeLength="4.87" waitingTime="0.00" waitingCount="0" stopTime="0.00" timeLoss="1.04" rerouteNo="0" devices="tripinfo_motorcycle198 routing_motorcycle198" vType="motorcycle_motorcycle" speedFactor="0.95" vaporized=""/>
    <tripinfo id="motorcycle6" depart="4.00" departLane="45878041#5_0" departPos="2.30" departSpeed="0.00" departDelay="0.33" arrival="125.00" arrivalLane="-30607773#3_0" arrivalPos="69.66" arrivalSpeed="12.50" duration="121.00" routeLength="875.28" waitingTime="45.00" waitingCount="2" stopTime="0.00" timeLoss="62.40" rerouteNo="1" devices="tripinfo_motorcycle6 routing_motorcycle6" vType="motorcycle_motorcycle" speedFactor="0.94" vaporized=""/>
    <tripinfo id="motorcycle58" depart="36.00" departLane="571741344_0" departPos="2.30" departSpeed="0.00" departDelay="0.55" arrival="126.00" arrivalLane="361881283#4_0" arrivalPos="103.20" arrivalSpeed="13.91" duration="90.00" routeLength="476.56" waitingTime="28.00" waitingCount="2" stopTime="0.00" timeLoss="43.38" rerouteNo="1" devices="tripinfo_motorcycle58 routing_motorcycle58" vType="motorcycle_motorcycle" speedFactor="1.08" vaporized=""/>
    <tripinfo id="motorcycle127" depart="78.00" departLane="-65063609_0" departPos="2.30" departSpeed="14.01" departDelay="0.37" arrival="126.00" arrivalLane="346380243_0" arrivalPos="36.85" arrivalSpeed="12.48" duration="48.00" routeLength="507.81" waitingTime="0.00" waitingCount="0" stopTime="0.00" timeLoss="9.20" rerouteNo="1" devices="tripinfo_motorcycle127 routing_motorcycle127" vType="motorcycle_motorcycle" speedFactor="1.01" vaporized=""/>
    <tripinfo id="motorcycle42" depart="26.00" departLane="-155344772_0" departPos="2.30" departSpeed="0.00" departDelay="0.33" arrival="127.00" arrivalLane="1202993160_0" arrivalPos="0.20" arrivalSpeed="9.72" duration="101.00" routeLength="946.54" waitingTime="8.00" waitingCount="1" stopTime="0.00" timeLoss="25.37" rerouteNo="1" devices="tripinfo_motorcycle42 routing_motorcycle42" vType="motorcycle_motorcycle" speedFactor="1.04" vaporized=""/>
    <tripinfo id="motorcycle83" depart="51.00" departLane="1018373169#1_0" departPos="2.30" departSpeed="0.00" departDelay="0.27" arrival="127.00" arrivalLane="1051754319_0" arrivalPos="24.00" arrivalSpeed="13.02" duration="76.00" routeLength="865.79" waitingTime="0.00" waitingCount="0" stopTime="0.00" timeLoss="14.32" rerouteNo="1" devices="tripinfo_motorcycle83 routing_motorcycle83" vType="motorcycle_motorcycle" speedFactor="0.98" vaporized=""/>
    <tripinfo id="motorcycle16" depart="10.00" departLane="1018542956#1_1" departPos="2.30" departSpeed="0.00" departDelay="0.22" arrival="132.00" arrivalLane="-184937068#6_0" arrivalPos="45.13" arrivalSpeed="10.05" duration="122.00" routeLength="1690.85" waitingTime="1.00" waitingCount="1" stopTime="0.00" timeLoss="24.90" rerouteNo="1" devices="tripinfo_motorcycle16 routing_motorcycle16" vType="motorcycle_motorcycle" speedFactor="0.94" vaporized=""/>
    <tripinfo id="motorcycle85" depart="53.00" departLane="1417014857#7_0" departPos="2.30" departSpeed="0.00" departDelay="1.05" arrival="134.00" arrivalLane="-565853615#5_0" arrivalPos="82.16" arrivalSpeed="22.57" duration="81.00" routeLength="1004.42" waitingTime="0.00" waitingCount="0" stopTime="0.00" timeLoss="20.67" rerouteNo="1" devices="tripinfo_motorcycle85 routing_motorcycle85" vType="motorcycle_motorcycle" speedFactor="1.04" vaporized=""/>
    <tripinfo id="motorcycle122" depart="75.00" departLane="46752298#0_0" departPos="2.30" departSpeed="0.00" departDelay="0.43" arrival="134.00" arrivalLane="365878604#5_0" arrivalPos="43.65" arrivalSpeed="13.93" duration="59.00" routeLength="660.69" waitingTime="18.00" waitingCount="3" stopTime="0.00" timeLoss="32.74" rerouteNo="1" devices="tripinfo_motorcycle122 routing_motorcycle122" vType="motorcycle_motorcycle" speedFactor="1.06" vaporized=""/>
    <tripinfo id="motorcycle133" depart="82.00" departLane="571089117#1_1" departPos="2.30" departSpeed="0.00" departDelay="0.71" arrival="134.00" arrivalLane="1008228759_0" arrivalPos="379.45" arrivalSpeed="21.48" duration="52.00" routeLength="681.67" waitingTime="0.00" waitingCount="0" stopTime="0.00" timeLoss="10.28" rerouteNo="1" devices="tripinfo_motorcycle133 routing_motorcycle133" vType="motorcycle_motorcycle" speedFactor="1.01" vaporized=""/>
    <tripinfo id="motorcycle78" depart="48.00" departLane="571777654#2_0" departPos="2.30" departSpeed="0.00" departDelay="0.32" arrival="135.00" arrivalLane="790572512#2_0" arrivalPos="70.51" arrivalSpeed="8.18" duration="87.00" routeLength="938.37" waitingTime="0.00" waitingCount="0" stopTime="0.00" timeLoss="15.57" rerouteNo="1" devices="tripinfo_motorcycle78 routing_motorcycle78" vType="motorcycle_motorcycle" speedFactor="1.03" vaporized=""/>
    <tripinfo id="bus37" depart="45.00" departLane="-65063639#1_0" departPos="12.10" departSpeed="6.73" departDelay="0.27" arrival="137.00" arrivalLane="-64948625#0_0" arrivalPos="15.25" arrivalSpeed="11.78" duration="92.00" routeLength="1030.76" waitingTime="0.00" waitingCount="0" stopTime="0.00" timeLoss="15.21" rerouteNo="1" devices="tripinfo_bus37 routing_bus37" vType="bus_bus" speedFactor="1.00" vaporized=""/>
    <tripinfo id="motorcycle174" depart="107.00" departLane="-174295731#0_0" departPos="2.30" departSpeed="0.00" departDelay="0.65" arrival="138.00" arrivalLane="-174295711_0" arrivalPos="31.42" arrivalSpeed="13.44" duration="31.00" routeLength="304.91" waitingTime="0.00" waitingCount="0" stopTime="0.00" timeLoss="8.15" rerouteNo="1" devices="tripinfo_motorcycle174 routing_motorcycle174" vType="motorcycle_motorcycle" speedFactor="1.09" vaporized=""/>
    <tripinfo id="motorcycle117" depart="72.00" departLane="571799058#4_1" departPos="2.30" departSpeed="0.00" departDelay="0.49" arrival="139.00" arrivalLane="1016825001_0" arrivalPos="24.71" arrivalSpeed="12.72" duration="67.00" routeLength="575.98" waitingTime="16.00" waitingCount="1" stopTime="0.00" timeLoss="30.74" rerouteNo="1" devices="tripinfo_motorcycle117 routing_motorcycle117" vType="motorcycle_motorcycle" speedFactor="1.07" vaporized=""/>
    <tripinfo id="motorcycle45" depart="28.00" departLane="33044939#3_0" departPos="2.30" departSpeed="0.00" departDelay="0.49" arrival="140.00" arrivalLane="98778639#3_0" arrivalPos="9.48" arrivalSpeed="24.01" duration="112.00" routeLength="1075.50" waitingTime="10.00" waitingCount="1" stopTime="0.00" timeLoss="38.70" rerouteNo="1" devices="tripinfo_motorcycle45 routing_motorcycle45" vType="motorcycle_motorcycle" speedFactor="0.90" vaporized=""/>
    <tripinfo id="motorcycle18" depart="11.00" departLane="346380251#3_0" departPos="2.30" departSpeed="0.00" departDelay="0.00" arrival="141.00" arrivalLane="-64948309_0" arrivalPos="148.75" arrivalSpeed="13.71" duration="130.00" routeLength="1094.74" waitingTime="0.00" waitingCount="0" stopTime="0.00" timeLoss="23.57" rerouteNo="1" devices="tripinfo_motorcycle18 routing_motorcycle18" vType="motorcycle_motorcycle" speedFactor="1.02" vaporized=""/>
    <tripinfo id="motorcycle184" depart="113.00" departLane="184937068#6_0" departPos="2.30" departSpeed="0.00" departDelay="0.53" arrival="141.00" arrivalLane="-184937068#3_0" arrivalPos="61.58" arrivalSpeed="12.20" duration="28.00" routeLength="324.00" waitingTime="0.00" waitingCount="0" stopTime="0.00" timeLoss="5.14" rerouteNo="1" devices="tripinfo_motorcycle184 routing_motorcycle184" vType="motorcycle_motorcycle" speedFactor="1.08" vaporized=""/>
    <tripinfo id="motorcycle104" depart="64.00" departLane="65063590_0" departPos="2.30" departSpeed="14.08" departDelay="0.43" arrival="142.00" arrivalLane="986771435#0_0" arrivalPos="7.46" arrivalSpeed="12.19" duration="78.00" routeLength="863.61" waitingTime="0.00" waitingCount="0" stopTime="0.00" timeLoss="13.72" rerouteNo="1" devices="tripinfo_motorcycle104 routing_motorcycle104" vType="motorcycle_motorcycle" speedFactor="1.01" vaporized=""/>
    <tripinfo id="motorcycle20" depart="13.00" departLane="571475508_0" departPos="2.30" departSpeed="0.00" departDelay="0.78" arrival="143.00" arrivalLane="-1018192143_0" arrivalPos="27.99" arrivalSpeed="13.16" duration="130.00" routeLength="1469.43" waitingTime="0.00" waitingCount="0" stopTime="0.00" timeLoss="27.29" rerouteNo="1" devices="tripinfo_motorcycle20 routing_motorcycle20" vType="motorcycle_motorcycle" speedFactor="0.97" vaporized=""/>
    <tripinfo id="motorcycle21" depart="13.00" departLane="-945311538#1_0" departPos="2.30" departSpeed="12.36" departDelay="0.16" arrival="144.00" arrivalLane="-320096059#0_0" arrivalPos="97.99" arrivalSpeed="10.93" duration="131.00" routeLength="996.16" waitingTime="39.00" waitingCount="2" stopTime="0.00" timeLoss="62.12" rerouteNo="1" devices="tripinfo_motorcycle21 routing_motorcycle21" vType="motorcycle_motorcycle" speedFactor="0.89" vaporized=""/>
    <tripinfo id="motorcycle146" depart="90.00" departLane="571475544_0" departPos="2.30" departSpeed="0.00" departDelay="0.76" arrival="148.00" arrivalLane="346382781_0" arrivalPos="34.79" arrivalSpeed="13.26" duration="58.00" routeLength="495.96" waitingTime="0.00" waitingCount="0" stopTime="0.00" timeLoss="17.27" rerouteNo="1" devices="tripinfo_motorcycle146 routing_motorcycle146" vType="motorcycle_motorcycle" speedFactor="0.97" vaporized=""/>
    <tripinfo id="veh84" depart="52.00" departLane="932914923#3_1" departPos="5.10" departSpeed="0.00" departDelay="0.65" arrival="148.00" arrivalLane="746243143#1_0" arrivalPos="69.21" arrivalSpeed="26.43" duration="96.00" routeLength="909.54" waitingTime="24.00" waitingCount="2" stopTime="0.00" timeLoss="56.86" rerouteNo="1" devices="tripinfo_veh84 routing_veh84" vType="veh_passenger" speedFactor="1.00" vaporized=""/>
    <tripinfo id="motorcycle95" depart="59.00" departLane="-553789840#6_0" departPos="2.30" departSpeed="0.00" departDelay="0.93" arrival="149.00" arrivalLane="-64948819#1_0" arrivalPos="41.31" arrivalSpeed="6.93" duration="90.00" routeLength="905.01" waitingTime="0.00" waitingCount="0" stopTime="0.00" timeLoss="17.40" rerouteNo="1" devices="tripinfo_motorcycle95 routing_motorcycle95" vType="motorcycle_motorcycle" speedFactor="0.91" vaporized=""/>
    <tripinfo id="motorcycle31" depart="19.00" departLane="1153073310#2_1" departPos="2.30" departSpeed="0.00" departDelay="0.05" arrival="153.00" arrivalLane="33045057#1_0" arrivalPos="27.36" arrivalSpeed="13.75" duration="134.00" routeLength="1528.95" waitingTime="20.00" waitingCount="2" stopTime="0.00" timeLoss="54.86" rerouteNo="1" devices="tripinfo_motorcycle31 routing_motorcycle31" vType="motorcycle_motorcycle" speedFactor="1.17" vaporized=""/>
    <tripinfo id="motorcycle100" depart="62.00" departLane="-99868784#1_0" departPos="2.30" departSpeed="0.00" departDelay="0.88" arrival="154.00" arrivalLane="571089117#2_0" arrivalPos="104.84" arrivalSpeed="11.40" duration="92.00" routeLength="1318.70" waitingTime="0.00" waitingCount="0" stopTime="0.00" timeLoss="14.42" rerouteNo="1" devices="tripinfo_motorcycle100 routing_motorcycle100" vType="motorcycle_motorcycle" speedFactor="0.97" vaporized=""/>
    <tripinfo id="motorcycle136" depart="84.00" departLane="-345361090#1_0" departPos="2.30" departSpeed="0.00" departDelay="0.87" arrival="156.00" arrivalLane="64950917#2_0" arrivalPos="26.28" arrivalSpeed="13.94" duration="72.00" routeLength="610.43" waitingTime="2.00" waitingCount="1" stopTime="0.00" timeLoss="27.30" rerouteNo="1" devices="tripinfo_motorcycle136 routing_motorcycle136" vType="motorcycle_motorcycle" speedFactor="1.00" vaporized=""/>
    <tripinfo id="veh25" depart="16.00" departLane="1200962124#1_0" departPos="5.10" departSpeed="0.00" departDelay="0.72" arrival="156.00" arrivalLane="70551073#2_0" arrivalPos="31.22" arrivalSpeed="12.77" duration="140.00" routeLength="1789.02" waitingTime="8.00" waitingCount="2" stopTime="0.00" timeLoss="51.27" rerouteNo="1" devices="tripinfo_veh25 routing_veh25" vType="veh_passenger" speedFactor="1.03" vaporized=""/>
    <tripinfo id="motorcycle69" depart="43.00" departLane="98724858#9_3" departPos="2.30" departSpeed="0.00" departDelay="0.83" arrival="160.00" arrivalLane="98726741#3_1" arrivalPos="0.20" arrivalSpeed="10.41" duration="117.00" routeLength="675.23" waitingTime="60.00" waitingCount="1" stopTime="0.00" timeLoss="77.37" rerouteNo="1" devices="tripinfo_motorcycle69 routing_motorcycle69" vType="motorcycle_motorcycle" speedFactor="0.97" vaporized=""/>
    <tripinfo id="motorcycle0" depart="0.00" departLane="804366829#0_0" departPos="0.36" departSpeed="0.00" departDelay="0.00" arrival="161.00" arrivalLane="31057193#0_0" arrivalPos="113.18" arrivalSpeed="12.79" duration="161.00" routeLength="1382.88" waitingTime="54.00" waitingCount="3" stopTime="0.00" timeLoss="82.07" rerouteNo="1" devices="tripinfo_motorcycle0 routing_motorcycle0" vType="motorcycle_motorcycle" speedFactor="1.06" vaporized=""/>
    <tripinfo id="motorcycle19" depart="12.00" departLane="-173395769#6_0" departPos="2.30" departSpeed="0.00" departDelay="0.39" arrival="163.00" arrivalLane="772734364_0" arrivalPos="55.56" arrivalSpeed="13.86" duration="151.00" routeLength="1942.05" waitingTime="18.00" waitingCount="1" stopTime="0.00" timeLoss="47.04" rerouteNo="1" devices="tripinfo_motorcycle19 routing_motorcycle19" vType="motorcycle_motorcycle" speedFactor="1.01" vaporized=""/>
    <tripinfo id="motorcycle139" depart="85.00" departLane="-98724813#1_0" departPos="2.30" departSpeed="0.00" departDelay="0.04" arrival="163.00" arrivalLane="30658828#2_1" arrivalPos="5.52" arrivalSpeed="30.86" duration="78.00" routeLength="1369.20" waitingTime="0.00" waitingCount="0" stopTime="0.00" timeLoss="17.86" rerouteNo="1" devices="tripinfo_motorcycle139 routing_motorcycle139" vType="motorcycle_motorcycle" speedFactor="1.16" vaporized=""/>
    <tripinfo id="motorcycle197" depart="121.00" departLane="-807266199_0" departPos="2.30" departSpeed="3.53" departDelay="0.59" arrival="163.00" arrivalLane="361903021#3_0" arrivalPos="65.40" arrivalSpeed="11.15" duration="42.00" routeLength="371.46" waitingTime="0.00" waitingCount="0" stopTime="0.00" timeLoss="7.19" rerouteNo="1" devices="tripinfo_motorcycle197 routing_motorcycle197" vType="motorcycle_motorcycle" speedFactor="0.83" vaporized=""/>
    <tripinfo id="motorcycle65" depart="40.00" departLane="-626949832_0" departPos="2.30" departSpeed="0.00" departDelay="0.27" arrival="164.00" arrivalLane="1069298016#1_0" arrivalPos="0.20" arrivalSpeed="8.53" duration="124.00" routeLength="1187.15" waitingTime="25.00" waitingCount="1" stopTime="0.00" timeLoss="47.17" rerouteNo="1" devices="tripinfo_motorcycle65 routing_motorcycle65" vType="motorcycle_motorcycle" speedFactor="0.91" vaporized=""/>
    <tripinfo id="motorcycle120" depart="74.00" departLane="-174295934#2_0" departPos="2.30" departSpeed="14.33" departDelay="0.65" arrival="164.00" arrivalLane="-370196253#0_0" arrivalPos="34.82" arrivalSpeed="17.51" duration="90.00" routeLength="1360.70" waitingTime="0.00" waitingCount="0" stopTime="0.00" timeLoss="20.36" rerouteNo="1" devices="tripinfo_motorcycle120 routing_motorcycle120" vType="motorcycle_motorcycle" speedFactor="1.03" vaporized=""/>
    <tripinfo id="motorcycle228" depart="140.00" departLane="345361094_0" departPos="2.30" departSpeed="14.45" departDelay="0.64" arrival="164.00" arrivalLane="-346379174_0" arrivalPos="48.72" arrivalSpeed="12.41" duration="24.00" routeLength="214.27" waitingTime="0.00" waitingCount="0" stopTime="0.00" timeLoss="6.47" rerouteNo="1" devices="tripinfo_motorcycle228 routing_motorcycle228" vType="motorcycle_motorcycle" speedFactor="1.04" vaporized=""/>
    <tripinfo id="motorcycle43" depart="27.00" departLane="33234029#3_0" departPos="2.30" departSpeed="0.00" departDelay="0.72" arrival="165.00" arrivalLane="571096592_0" arrivalPos="60.89" arrivalSpeed="15.09" duration="138.00" routeLength="1372.66" waitingTime="29.00" waitingCount="4" stopTime="0.00" timeLoss="67.71" rerouteNo="1" devices="tripinfo_motorcycle43 routing_motorcycle43" vType="motorcycle_motorcycle" speedFactor="1.09" vaporized=""/>